40
Lattice="11.86 0.0 0.0 0.0 11.86 0.0 0.0 0.0 11.86" Properties=species:S:1:pos:R:3:forces:R:3 energy=-1429.87335095578 pbc="T T T"
Pb       0.00000000       0.00000000       0.00000000       0.00003722       0.00004429      -0.00005303
Pb       0.00000000       0.00000000       5.93000000       0.00002455      -0.00006778       0.00001536
Pb       0.00000000       5.93000000       0.00000000       0.00012978      -0.00004880       0.00004259
Pb       0.00000000       5.93000000       5.93000000      -0.00000266      -0.00001125      -0.00001712
Pb       5.93000000       0.00000000       0.00000000       0.00003290       0.00000570       0.00012899
Pb       5.93000000       0.00000000       5.93000000      -0.00005804       0.00019329      -0.00012278
Pb       5.93000000       5.93000000       0.00000000       0.00002087       0.00008745      -0.00002429
Pb       5.93000000       5.93000000       5.93000000       0.00001456      -0.00011505      -0.00004545
Br       2.96500000       0.00000000       0.00000000       0.00000283      -0.00009831      -0.00008369
Br       2.96500000       0.00000000       5.93000000       0.00004966       0.00001395       0.00016107
Br       2.96500000       5.93000000       0.00000000      -0.00013540       0.00001320      -0.00001003
Br       2.96500000       5.93000000       5.93000000      -0.00000988      -0.00000707       0.00008195
Br       8.89500000       0.00000000       0.00000000      -0.00005371      -0.00014336      -0.00001922
Br       8.89500000       0.00000000       5.93000000       0.00003307       0.00001396       0.00001043
Br       8.89500000       5.93000000       0.00000000      -0.00000174      -0.00001293      -0.00001252
Br       8.89500000       5.93000000       5.93000000      -0.00000970       0.00004838       0.00002830
Br       0.00000000       2.96500000       0.00000000      -0.00002458       0.00002419       0.00003620
Br       0.00000000       2.96500000       5.93000000      -0.00003523      -0.00002551       0.00001230
Br       0.00000000       8.89500000       0.00000000      -0.00002854      -0.00000093      -0.00004438
Br       0.00000000       8.89500000       5.93000000       0.00001287      -0.00007371       0.00009405
Br       5.93000000       2.96500000       0.00000000       0.00005939      -0.00004455      -0.00003932
Br       5.93000000       2.96500000       5.93000000       0.00005672      -0.00008531       0.00001381
Br       5.93000000       8.89500000       0.00000000      -0.00000405       0.00015916      -0.00015388
Br       5.93000000       8.89500000       5.93000000      -0.00002560      -0.00001763       0.00009108
Br       0.00000000       0.00000000       2.96500000      -0.00000582       0.00005809       0.00008611
Br       0.00000000       0.00000000       8.89500000      -0.00002740      -0.00003746       0.00004169
Br       0.00000000       5.93000000       2.96500000      -0.00011158      -0.00000338      -0.00004396
Br       0.00000000       5.93000000       8.89500000      -0.00002888       0.00017748      -0.00001658
Br       5.93000000       0.00000000       2.96500000      -0.00000238      -0.00001138      -0.00006433
Br       5.93000000       0.00000000       8.89500000       0.00006064      -0.00013857       0.00003282
Br       5.93000000       5.93000000       2.96500000       0.00003043      -0.00004164      -0.00011629
Br       5.93000000       5.93000000       8.89500000      -0.00000619      -0.00004443      -0.00010977
Cs       2.96500000       2.96500000       2.96500000      -0.00004621       0.00004029      -0.00000945
Cs       2.96500000       2.96500000       8.89500000      -0.00004775      -0.00003401       0.00004468
Cs       2.96500000       8.89500000       2.96500000      -0.00002895      -0.00002119      -0.00004522
Cs       2.96500000       8.89500000       8.89500000      -0.00000684      -0.00000753       0.00005669
Cs       8.89500000       2.96500000       2.96500000       0.00006291       0.00001128      -0.00003340
Cs       8.89500000       2.96500000       8.89500000       0.00011700      -0.00002474       0.00004123
Cs       8.89500000       8.89500000       2.96500000      -0.00001516       0.00004293      -0.00008913
Cs       8.89500000       8.89500000       8.89500000      -0.00003055       0.00003735       0.00006784
40
Lattice="11.8595515771846 -0.01100443865415654 0.0005952219619083273 0.0 11.8604193988202 -0.01226174292560953 0.0 0.0 11.861665694905" Properties=species:S:1:pos:R:3:forces:R:3 energy=-1429.87433108931 pbc="T T T"
Pb      11.85753960      -0.00937265      11.86106099       0.02015350      -0.02305807       0.00325985
Pb       0.00020202       0.00011421       5.92923529      -0.00249884      -0.00741547       0.01346876
Pb       0.00130047       5.92895733      11.85015997      -0.01128707       0.00527797       0.03280819
Pb       0.00071005       5.93061418       5.92160918       0.00277071      -0.00677675       0.02352103
Pb       5.92997001      -0.00415585       0.00447986      -0.00570385      -0.00420575      -0.03310734
Pb       5.92795692      11.85333082       5.91827217       0.01836840       0.02264643       0.01461457
Pb       5.93036651       5.92544472      11.85184419      -0.00007389      -0.00527020       0.04062646
Pb       5.93157096       5.92905879       5.92606536      -0.01383678      -0.03646719      -0.01469843
Br       2.96732945       0.00458400       0.00462592      -0.02825246       0.01598658       0.02096300
Br       2.95853604      11.85694888       5.91358845       0.06839884      -0.02278011      -0.03764074
Br       2.96854840       5.92737815      -0.00412597      -0.04238468       0.00995536       0.02254265
Br       2.96901057       5.92207650       5.92316206      -0.02805535      -0.03487031      -0.01491267
Br       8.89369143      -0.00253351      11.86184088       0.01614174       0.04967307       0.00127574
Br       8.89735061      11.84502133       5.91686659      -0.03822946      -0.03317428      -0.00576383
Br       8.89021559       5.91867678      11.85089524       0.05923298      -0.01567851      -0.02908221
Br       8.89699621       5.91864439       5.91914308      -0.01490760      -0.02622587      -0.02344509
Br       0.00136983       2.96744371      11.85366714       0.01223795      -0.03034498      -0.04593263
Br       0.00258976       2.96454495       5.93065151       0.03562332       0.00314096       0.03436341
Br      11.85945245       8.88010843      11.84969311      -0.01054974       0.03553634      -0.01963652
Br       0.00314636       8.89327702       5.91752357       0.02789990       0.01747712      -0.03549286
Br       5.92672936       2.96527346      11.85439931      -0.01913680      -0.06921575      -0.04171125
Br       5.93254609       2.95537767       5.93184206       0.03063850       0.05533769       0.04006229
Br       5.93635146       8.88741421      -0.00876275       0.04272130       0.04702197       0.00013262
Br       5.92972534       8.89386690       5.92359774      -0.00023640      -0.04105297       0.03137256
Br      11.85725193      11.84917394       2.95084154      -0.02162528      -0.00745393       0.01359913
Br       0.00351204      11.85796307       8.88363678       0.04911328      -0.02525440      -0.00024607
Br       0.00513247       5.93645634       2.96457916       0.01494668       0.02213365      -0.05346152
Br      11.85735447       5.92052481       8.89520410      -0.02025222       0.01240786      -0.02217470
Br       5.93240293      11.85052327       2.95834465       0.01065692      -0.04015672      -0.04147286
Br       5.92552118      11.84885817       8.88646224      -0.02113900      -0.02447968      -0.00708845
Br       5.93094152       5.91851131       2.95962633      -0.00749869      -0.04542829       0.01214991
Br       5.93023288       5.92747962       8.89360585       0.00378197       0.03363554      -0.03293498
Cs       2.96530732       2.96149638       2.96164416       0.00109805       0.00501800       0.00208033
Cs       2.96855305       2.96334157       8.89768539      -0.00641863      -0.00347053      -0.00968224
Cs       2.96228807       8.89036809       2.95471862       0.00393722       0.00242797       0.00362461
Cs       2.96310651       8.89172315       8.88588681       0.00446872       0.00341678       0.00357132
Cs       8.89402109       2.95659974       2.96557597      -0.00120163       0.00294485      -0.00527526
Cs       8.89496439       2.95466680       8.89202729      -0.00230871       0.00583848       0.00398181
Cs       8.89946994       8.88994693       2.95785745      -0.00997543      -0.00773403      -0.00287290
Cs       8.89351864       8.88412459       8.88813724       0.00202202       0.00728066       0.00035700
40
Lattice="11.8584796686877 -0.01989507952009913 0.002118660400086695 -5.612845043267874e-18 11.8608093391414 -0.02273543575928745 2.928758317624578e-15 9.736066246027025e-16 11.8632522493567" Properties=species:S:1:pos:R:3:forces:R:3 energy=-1429.87068929869 pbc="T T T"
Pb      11.85404202      -0.01559348      11.86169239       0.02565946      -0.03048829       0.01181394
Pb      11.85813566      -0.01973883       5.93011165      -0.00382187      -0.00374976       0.01966266
Pb       0.00122581       5.92757580      11.84147304      -0.00360953       0.01782025       0.03970129
Pb       0.00132500       5.93236187       5.91390729       0.01144103      -0.02058775       0.02540571
Pb       5.92896743      -0.00814817       0.00935192      -0.00866967      -0.00274688      -0.03783861
Pb       5.92619061      11.84759793       5.90988974       0.01924733       0.04507193       0.02190441
Pb       5.93021913       5.92258106      11.84591311      -0.00124211      -0.00837651       0.04773607
Pb       5.93268131       5.92858350       5.92249584      -0.01383669      -0.04455262      -0.02701613
Br       2.96918849       0.00880952       0.00986254      -0.05870969      -0.01137640      -0.01128093
Br       2.95078674      11.85372825       5.89738668       0.15283543      -0.00877226      -0.00896025
Br       2.97012569       5.92433706      -0.00587895      -0.08037625      -0.00315198       0.03764645
Br       2.97255998       5.91455416       5.91629949      -0.06154130      -0.01256223       0.00937670
Br       8.89189620      -0.00352753      11.86442257       0.03012211       0.01974060       0.00115615
Br       8.89668591      11.83137194       5.90597590      -0.06173301       0.00191748       0.00600173
Br       8.88464997       5.90850587      11.84322008       0.12414064      -0.00744485       0.00085134
Br       8.89893452       5.90968039       5.90957498      -0.03812939       0.00302699      -0.00291252
Br       0.00365294       2.96950956      11.84784079       0.00174732      -0.06933711      -0.02549739
Br       0.00464817       2.96511484       5.93040982       0.02193428      -0.00671939       0.02553711
Br      11.85695861       8.86718846      11.84408731      -0.00132822       0.09005543      -0.01432688
Br       0.00647426       8.89160565       5.90715735       0.01051286       0.04044777      -0.01689525
Br       5.92288087       2.96800081      11.84874183      -0.01050726      -0.15202027      -0.00567830
Br       5.93351520       2.94776589       5.93472726       0.01650924       0.10055142       0.02630564
Br       5.94105450       8.88180591      11.84648837       0.01329143       0.08143406      -0.00458802
Br       5.92866024       8.89551546       5.92106061       0.00141630      -0.10995826       0.00767946
Br      11.85304726      -0.01846918       2.96231124      -0.04707685       0.01212702       0.04531783
Br       0.00625306      11.85507722       8.87466532       0.02735363      -0.01641465      -0.01245161
Br       0.01155076       5.94102373       2.96603256      -0.01310989      -0.01015096      -0.11294315
Br      11.85418048       5.91319833       8.89760605       0.00214832       0.01209126      -0.06410762
Br       5.93480676      11.84204982       2.95320760       0.00880235      -0.01663901      -0.08604378
Br       5.92298114      11.84053283       8.87997944      -0.00496021      -0.00985100      -0.01814456
Br       5.93071340       5.90793080       2.95597933      -0.00792854      -0.00904134       0.01949446
Br       5.93092430       5.92453160       8.89296717       0.01611193       0.03368330      -0.07093280
Cs       2.96482651       2.95904735       2.95888777       0.00194154       0.00763897       0.00413516
Cs       2.97355224       2.96117131       8.90128520      -0.01390156      -0.00286486      -0.01680779
Cs       2.95978098       8.88555636       2.94742322       0.00506127       0.00622391       0.00335496
Cs       2.96107350       8.88887155       8.87922307       0.00733422       0.00560155       0.00416767
Cs       8.89073324       2.95091762       2.96757735       0.00280574       0.00159550      -0.00946724
Cs       8.89327977       2.94608421       8.89010537      -0.00238677       0.01007609       0.00691180
Cs       8.90317034       8.88507832       2.95136280      -0.01552503      -0.00900446      -0.00250297
Cs       8.89110540       8.87533735       8.88208213       0.00467091       0.01168526       0.00306811
40
Lattice="11.8569932717387 -0.02920367868648955 0.002938785491551726 1.954731222376917e-15 11.861602435461 -0.03250160557363056 -9.758708160108082e-16 5.861764808439641e-15 11.8628996250935" Properties=species:S:1:pos:R:3:forces:R:3 energy=-1429.86168152098 pbc="T T T"
Pb      11.85087733      -0.02219366      11.85985609       0.02717342      -0.03726955       0.01284614
Pb      11.85536325      -0.02888388       5.92910954      -0.00515787       0.00155507       0.01624990
Pb       0.00115248       5.92567533      11.83143838      -0.00197325       0.02814723       0.04796053
Pb       0.00099421       5.93430694       5.90451339       0.01963250      -0.02437059       0.02696675
Pb       5.92741124      -0.01269154       0.01485840      -0.00868678       0.00524635      -0.04195621
Pb       5.92438536      11.84306111       5.90076090       0.01232729       0.05311055       0.03235706
Pb       5.93018479       5.92113372      11.83659139      -0.00279574      -0.00759840       0.05796772
Pb       5.93327444       5.92818456       5.91787361      -0.01231708      -0.04948283      -0.03675282
Br       2.97220041       0.01159458       0.01637466      -0.08238449      -0.01058961      -0.01785207
Br       2.94377888      11.85114186       5.88005182       0.18587279       0.01008490      -0.03928323
Br       2.97149722       5.92345063      -0.00801755      -0.11232305       0.02290831       0.02757078
Br       2.97632292       5.90788154       5.90752719      -0.09427295       0.00562532       0.01830269
Br       8.89000446      -0.00541080      11.86404764       0.04594844      -0.00746067       0.00407274
Br       8.89517035      11.82065836       5.89472281      -0.07174638       0.02632137       0.01681724
Br       8.88044078       5.89838143      11.83510124       0.16222833       0.00233940       0.02782698
Br       8.89996819       5.90211599       5.89820434      -0.05470652       0.00757424       0.03702493
Br       0.00722615       2.97146574      11.84058244      -0.01897084      -0.10062682      -0.00024981
Br       0.00716127       2.96695251       5.92957485       0.01414031      -0.02920065       0.00864323
Br      11.85388947       8.85412905      11.83736954      -0.00705565       0.13696109       0.00118040
Br       0.00957923       8.88965510       5.89658242      -0.00655199       0.06772449       0.00153802
Br       5.91643771       2.96929750      11.84252928       0.00135529      -0.20061531       0.00951203
Br       5.93402653       2.93952644       5.93679077       0.00493437       0.15682179       0.01210560
Br       5.94445337       8.87710377      11.83990857      -0.01066214       0.10542515      -0.00730692
Br       5.92599133       8.89660733       5.91615758      -0.00421678      -0.18681056       0.02147812
Br      11.84754826      -0.02591254       2.96085296      -0.02553172       0.01385651       0.06785779
Br       0.00957398      11.85185069       8.86471902       0.00228736      -0.00337371      -0.01337344
Br       0.01762186       5.94646249       2.96830501       0.00608974       0.00458274      -0.14192625
Br      11.85168498       5.90524676       8.89770444       0.00832027       0.00746408      -0.10115610
Br       5.93629401      11.83376746       2.94681912       0.00226328       0.00012331      -0.10365720
Br       5.92158939      11.83174190       8.87411261       0.00535073       0.01117154      -0.04449841
Br       5.93071206       5.89909912       2.95319777       0.01144280       0.01821853       0.00631241
Br       5.93197549       5.92402922       8.88965685       0.00584408       0.02359259      -0.09481033
Cs       2.96479012       2.95733092       2.95617895       0.00235273       0.00884658       0.00560142
Cs       2.97983516       2.95853096       8.90387104      -0.01865603      -0.00239352      -0.02038349
Cs       2.95734116       8.88183034       2.94012435       0.00696813       0.00744832       0.00371712
Cs       2.95902672       8.88625098       8.87161793       0.00971930       0.00756583       0.00447574
Cs       8.88743856       2.94336156       2.96715605       0.00516176       0.00423368      -0.01048493
Cs       8.89157817       2.93768285       8.88736324      -0.00259462       0.01257749       0.00745931
Cs       8.90540676       8.88011282       2.94582119      -0.01974679      -0.01181674      -0.00546363
Cs       8.88800999       8.86585138       8.87479555       0.00822182       0.01800055       0.00490323
40
Lattice="11.8556926994622 -0.03864745439413728 0.002961990535580127 4.888557901354437e-15 11.8621256550591 -0.04164729824607109 -2.439678349879449e-15 6.353014345335115e-15 11.861867819125" Properties=species:S:1:pos:R:3:forces:R:3 energy=-1429.850436661 pbc="T T T"
Pb      11.84861124      -0.02864094      11.85749719       0.02834912      -0.04480376       0.01195523
Pb      11.85311048      -0.03851713       5.92804339      -0.00149053       0.01158230       0.01142855
Pb       0.00091192       5.92439788      11.82154595       0.00243244       0.04091797       0.06960518
Pb       0.00020269       5.93772174       5.89513702       0.02969111      -0.03176401       0.03140983
Pb       5.92713545      -0.01713409       0.02093560      -0.01052599       0.00517462      -0.06918149
Pb       5.92352511      11.83821582       5.89301818       0.00579434       0.06185041       0.03040170
Pb       5.93096881       5.91966710      11.82578355      -0.01638858      -0.00902771       0.09174313
Pb       5.93353738       5.92870742       5.91262180      -0.02004222      -0.07536109      -0.04647180
Br       2.97543490       0.01521370       0.02141099      -0.10844441       0.00846734      -0.00011537
Br       2.93726836      11.84856013       5.86259160       0.22026303       0.01800211      -0.04557501
Br       2.97109482       5.92217591      -0.01111098      -0.11784992       0.01908485       0.01681600
Br       2.97961989       5.89904016       5.90029003      -0.09338359      -0.02815983       0.01712650
Br       8.88838043      -0.00610460      11.86043953       0.05517214       0.00262639      -0.01177937
Br       8.89305421      11.80877006       5.88242293      -0.06695281      -0.02227355       0.02140013
Br       8.87676073       5.88916070      11.82571460       0.17281949      -0.00574184       0.03046943
Br       8.89929111       5.89300645       5.88834565      -0.04244907       0.01227324      -0.00281291
Br       0.01171052       2.97374782      11.83332701      -0.02084692      -0.12701567       0.02398828
Br       0.01189001       2.96922893       5.92710911      -0.00100558      -0.05617969      -0.00795424
Br      11.85241981       8.83990718      11.83359535      -0.00595398       0.19642291      -0.01178984
Br       0.01312813       8.88941832       5.88716462      -0.00734458       0.08867626       0.02594748
Br       5.91075127       2.97025205      11.83562863      -0.01119822      -0.22415468      -0.01276423
Br       5.93393248       2.93146746       5.93618627       0.00847114       0.19897122       0.01102096
Br       5.94728988       8.87202832      -0.02948564      -0.02999016       0.13000318      -0.00863776
Br       5.92234154       8.89717020       5.91320139       0.01163387      -0.24836207      -0.00441546
Br      11.84290281      -0.03456077       2.95746669      -0.01460199       0.00190796       0.09987752
Br       0.01244594      11.84753048       8.85392992      -0.01161729       0.02224802      -0.00764210
Br       0.02289126       5.95192534       2.97076530       0.01731121      -0.00351125      -0.20527872
Br      11.84888197       5.89834451       8.89545288       0.00592523      -0.00521469      -0.12675318
Br       5.93642756      11.82424692       2.93954972       0.00266927       0.00810194      -0.11249650
Br       5.92008311      11.82304444       8.86739083       0.00038048       0.01540193      -0.06095851
Br       5.92982528       5.89224097       2.94848346       0.00300319       0.03236063       0.01126046
Br       5.93368058       5.92559974       8.88438358      -0.00279589      -0.00219791      -0.10992925
Cs       2.96615792       2.95477903       2.95172122      -0.00043383       0.01119232       0.01097519
Cs       2.98652906       2.95551870       8.90575243      -0.02016299      -0.00203124      -0.02156683
Cs       2.95518392       8.87783825       2.93389191       0.00846062       0.00988430       0.00116884
Cs       2.95714312       8.88370508       8.86305964       0.01253266       0.00871613       0.00648447
Cs       8.88482761       2.93631010       2.96559140       0.00691231       0.00528694      -0.01019631
Cs       8.89045309       2.92867130       8.88390871      -0.00334601       0.01662463       0.00746475
Cs       8.90772860       8.87352664       2.93969697      -0.02326474      -0.01197133      -0.00816488
Cs       8.88405449       8.85560206       8.86705167       0.01300592       0.02430599       0.00624339
40
Lattice="11.8547108220041 -0.0479708298552476 0.003441334780099884 5.856069345358537e-15 11.8626001452462 -0.05094932643439705 -1.252655937756215e-19 5.856140409683896e-15 11.8603568158187" Properties=species:S:1:pos:R:3:forces:R:3 energy=-1429.83846462838 pbc="T T T"
Pb      11.84631179      -0.03457214      11.85604006       0.03102692      -0.05474065       0.01030884
Pb      11.85242640      11.81413192       5.87735727      -0.01070316       0.02735301       0.00696365
Pb       0.00160173       5.92435431      11.81225010       0.00501390       0.04831603       0.06944350
Pb      11.85337742       5.89335320       5.88866991       0.03991505      -0.04458392       0.06667481
Pb       5.92657308      -0.02300911       0.02697758      -0.00938651       0.01406767      -0.07620344
Pb       5.92294316      11.83358174       5.88512337      -0.00568995       0.07203520       0.03831077
Pb       5.93249822       5.91706804      11.81361326      -0.02560364      -0.00972339       0.10894484
Pb       5.93466721       5.92924976       5.90619931      -0.02742413      -0.08885949      -0.05968203
Br       2.97941159       0.01752240       0.02672369      -0.14453347       0.01362036       0.01791530
Br       2.93027096      11.84461265       5.84617758       0.25217861       0.00399039      -0.02958781
Br       2.97073314       5.92229606      -0.01421669      -0.12143710       0.00716553       0.00657490
Br       2.98528590       5.88996538       5.89036684      -0.14226168      -0.02637973       0.01406506
Br       8.88992388      -0.00750644      11.85591915       0.04405238       0.03919373       0.00310824
Br       8.88954514      11.79791163       5.87096666      -0.06699627      -0.02769404       0.02829302
Br       8.87370017       5.87997524      11.81687319       0.17174948      -0.01468816       0.00459239
Br       8.89772359       5.88603255       5.88032428      -0.00365587       0.01741065      -0.03796322
Br       0.01688211       2.97532982      11.82681488      -0.02358776      -0.14991513       0.00471718
Br       0.01663307       2.96908732       5.92412231      -0.02465465      -0.05427233      -0.01577249
Br      11.85126321       8.82602795      -0.03067825       0.02176334       0.24310124      -0.01859127
Br       0.01552816       8.89031713       5.87798749      -0.01919677       0.08236012       0.03280310
Br       5.90494813       2.97149267      11.82960594      -0.03882423      -0.23580287      -0.01369417
Br       5.93377599       2.92581950       5.93617196       0.01846068       0.21252495       0.00081777
Br       5.94914393       8.86873182      -0.03464332      -0.02112325       0.13381412       0.01240639
Br       5.91921135       8.89694643       5.90701794      -0.02023607      -0.25835899       0.01271080
Br      11.84036323      -0.04256370       2.95426925      -0.01080707       0.00882223       0.12342001
Br       0.01344371      11.84320023       8.84340494      -0.03159532      -0.00387665      -0.00150668
Br       0.02654878       5.95650225       2.97237439       0.02322010       0.02529559      -0.19710759
Br      11.84522677       5.89167235       8.89343880       0.00115168       0.00189345      -0.15033830
Br       5.93667755      11.81576644       2.93416148       0.00258911      -0.02404348      -0.12214736
Br       5.91814892      11.81375866       8.85957168       0.00997828      -0.03015615      -0.05176849
Br       5.92799097       5.88676521       2.94335938       0.00402170       0.02768944       0.01224710
Br       5.93500477       5.92626285       8.87887129      -0.01182573      -0.02948686      -0.11896136
Cs       2.96631249       2.95167779       2.94709794      -0.00006751       0.01431831       0.01585681
Cs       2.99404634       2.95226694       8.90727053      -0.02208037      -0.00075641      -0.02527995
Cs       2.95472954       8.87394975       2.92767162       0.00842393       0.01217368      -0.00117349
Cs       2.95591698       8.88104826       8.85437955       0.01379757       0.01057562       0.00827063
Cs       8.88270096       2.93057919       2.96522112       0.00809240       0.00294722      -0.01220638
Cs       8.89017602       2.92035579       8.88083867      -0.00470348       0.01831101       0.00630410
Cs       8.91029424       8.86587841       2.93262768      -0.02161759      -0.00894459      -0.00654999
Cs       8.88035394       8.84466792       8.85981235       0.01671253       0.02745592       0.00669839
40
Lattice="11.8540881354081 -0.05622073291582497 0.003625336803984059 3.879715584497042e-15 11.8619126374138 -0.05963211066344602 4.877362694502549e-15 3.395324920500527e-15 11.8589158869913" Properties=species:S:1:pos:R:3:forces:R:3 energy=-1429.82808826154 pbc="T T T"
Pb      11.84371631      -0.03876008      11.85544063       0.04349738      -0.08285294       0.00534937
Pb      11.85279742      11.80496403       5.86868158      -0.02864692       0.03563298       0.00261292
Pb       0.00397475       5.92394889      11.80317046      -0.00662706       0.05704133       0.07993713
Pb      11.85136029       5.88782322       5.88060470       0.06131504      -0.05931941       0.07810561
Pb       5.92777602      11.83156896      -0.02658169      -0.01135742       0.03480275      -0.08724931
Pb       5.92180142      11.82771345       5.87750911      -0.00476187       0.08296710       0.04789850
Pb       5.93361514       5.91567545      11.80257507      -0.02287046      -0.01698962       0.12317151
Pb       5.93747778       5.92958908       5.90055489      -0.04784842      -0.09493365      -0.06529234
Br       2.98360650       0.02038495       0.03351125      -0.15086063       0.02542191       0.03932692
Br       2.92476568      11.83922557       5.83033998       0.24694100       0.00179325      -0.04302683
Br       2.96923621       5.92076868      -0.01668675      -0.10904460       0.01310112      -0.01327397
Br       2.99132698       5.88073678       5.88028432      -0.17099069      -0.01660554       0.02172730
Br       8.89152585      -0.00925158      11.85081714       0.03167670       0.04623758       0.00745219
Br       8.88754715      11.78532896       5.85998093      -0.06345428      -0.03066430       0.03938818
Br       8.87192696       5.87132669      11.80670027       0.18051580      -0.00178742      -0.01049142
Br       8.89420791       5.87814366       5.87163056       0.04026178       0.02190796      -0.03842415
Br       0.02298128       2.97667450      11.82085563       0.00084684      -0.16122526      -0.01149857
Br       0.02309952       2.96966212       5.92032352      -0.01996278      -0.06191333       0.00302551
Br      11.85014080       8.81483532      -0.03146577      -0.00173986       0.26715680       0.01925456
Br       0.01892576       8.88976915       5.87017970      -0.01688218       0.07595128       0.02707768
Br       5.89995561       2.97204343      11.82506897      -0.02885508      -0.24217850      -0.02846883
Br       5.93376591       2.92060932       5.93727212       0.00825152       0.22466054       0.00679256
Br       5.95136654       8.86694086      -0.04111961       0.01142754       0.11726579       0.01317644
Br       5.91588307       8.89586269       5.90092212      -0.00722360      -0.29385757       0.01846251
Br      11.83756129      -0.04887926       2.94954552      -0.00725888       0.01623186       0.15210497
Br       0.01456346      11.83719335       8.83226742      -0.01811615      -0.01085674      -0.00555105
Br       0.03084526       5.96037176       2.97221459       0.03492581       0.02985938      -0.18368376
Br      11.84003798       5.88399462       8.89461708       0.00394526       0.02131187      -0.18924685
Br       5.93649338      11.80847833       2.92851891       0.00146288      -0.02210086      -0.15042964